<?xml version="1.0"?>
<VTKFile type="UnstructuredGrid" version="0.1" byte_order="LittleEndian" header_type="UInt32" compressor="vtkZLibDataCompressor">
  <UnstructuredGrid>
    <Piece NumberOfPoints="262" NumberOfCells="34">
      <PointData Scalars="point_type">
        <DataArray type="Int64" Name="point_type" format="ascii" RangeMin="1" RangeMax="1">
          1 1 1 1 1 1
          1 1 1 1 1 1
          1 1 1 1 1 1
          1 1 1 1 1 1
          1 1 1 1 1 1
          1 1 1 1 1 1
          1 1 1 1 1 1
          1 1 1 1 1 1
          1 1 1 1 1 1
          1 1 1 1 1 1
          1 1 1 1 1 1
          1 1 1 1 1 1
          1 1 1 1 1 1
          1 1 1 1 1 1
          1 1 1 1 1 1
          1 1 1 1 1 1
          1 1 1 1 1 1
          1 1 1 1 1 1
          1 1 1 1 1 1
          1 1 1 1 1 1
          1 1 1 1 1 1
          1 1 1 1 1 1
          1 1 1 1 1 1
          1 1 1 1 1 1
          1 1 1 1 1 1
          1 1 1 1 1 1
          1 1 1 1 1 1
          1 1 1 1 1 1
          1 1 1 1 1 1
          1 1 1 1 1 1
          1 1 1 1 1 1
          1 1 1 1 1 1
          1 1 1 1 1 1
          1 1 1 1 1 1
          1 1 1 1 1 1
          1 1 1 1 1 1
          1 1 1 1 1 1
          1 1 1 1 1 1
          1 1 1 1 1 1
          1 1 1 1 1 1
          1 1 1 1 1 1
          1 1 1 1 1 1
          1 1 1 1 1 1
          1 1 1 1
        </DataArray>
        <DataArray type="Float64" Name="rotation_vector" NumberOfComponents="3" format="ascii" RangeMin="0" RangeMax="0">
          0 0 0 0 0 0
          0 0 0 0 0 0
          0 0 0 0 0 0
          0 0 0 0 0 0
          0 0 0 0 0 0
          0 0 0 0 0 0
          0 0 0 0 0 0
          0 0 0 0 0 0
          0 0 0 0 0 0
          0 0 0 0 0 0
          0 0 0 0 0 0
          0 0 0 0 0 0
          0 0 0 0 0 0
          0 0 0 0 0 0
          0 0 0 0 0 0
          0 0 0 0 0 0
          0 0 0 0 0 0
          0 0 0 0 0 0
          0 0 0 0 0 0
          0 0 0 0 0 0
          0 0 0 0 0 0
          0 0 0 0 0 0
          0 0 0 0 0 0
          0 0 0 0 0 0
          0 0 0 0 0 0
          0 0 0 0 0 0
          0 0 0 0 0 0
          0 0 0 0 0 0
          0 0 0 0 0 0
          0 0 0 0 0 0
          0 0 0 0 0 0
          0 0 0 0 0 0
          0 0 0 0 0 0
          0 0 0 0 0 0
          0 0 0 0 0 0
          0 0 0 0 0 0
          0 0 0 0 0 0
          0 0 0 0 0 0
          0 0 0 0 0 0
          0 0 0 0 0 0
          0 0 0 0 0 0
          0 0 0 0 0 0
          0 0 0 0 0 0
          0 0 0 0 0 0
          0 0 0 0 0 0
          0 0 0 0 0 0
          0 0 0 0 0 0
          0 0 0 0 0 0
          0 0 0 0 0 0
          0 0 0 0 0 0
          0 0 0 0 0 0
          0 0 0 0 0 0
          0 0 0 0 0 0
          0 0 0 0 0 0
          0 0 0 0 0 0
          0 0 0 0 0 0
          0 0 0 0 0 0
          0 0 0 0 0 0
          0 0 0 0 0 0
          0 0 0 0 0 0
          0 0 0 0 0 0
          0 0 0 0 0 0
          0 0 0 0 0 0
          0 0 0 0 0 0
          0 0 0 0 0 0
          0 0 0 0 0 0
          0 0 0 0 0 0
          0 0 0 0 0 0
          0 0 0 0 0 0
          0 0 0 0 0 0
          0 0 0 0 0 0
          0 0 0 0 0 0
          0 0 0 0 0 0
          0 0 0 0 0 0
          0 0 0 0 0 0
          0 0 0 0 0 0
          0 0 0 0 0 0
          0 0 0 0 0 0
          0 0 0 0 0 0
          0 0 0 0 0 0
          0 0 0 0 0 0
          0 0 0 0 0 0
          0 0 0 0 0 0
          0 0 0 0 0 0
          0 0 0 0 0 0
          0 0 0 0 0 0
          0 0 0 0 0 0
          0 0 0 0 0 0
          0 0 0 0 0 0
          0 0 0 0 0 0
          0 0 0 0 0 0
          0 0 0 0 0 0
          0 0 0 0 0 0
          0 0 0 0 0 0
          0 0 0 0 0 0
          0 0 0 0 0 0
          0 0 0 0 0 0
          0 0 0 0 0 0
          0 0 0 0 0 0
          0 0 0 0 0 0
          0 0 0 0 0 0
          0 0 0 0 0 0
          0 0 0 0 0 0
          0 0 0 0 0 0
          0 0 0 0 0 0
          0 0 0 0 0 0
          0 0 0 0 0 0
          0 0 0 0 0 0
          0 0 0 0 0 0
          0 0 0 0 0 0
          0 0 0 0 0 0
          0 0 0 0 0 0
          0 0 0 0 0 0
          0 0 0 0 0 0
          0 0 0 0 0 0
          0 0 0 0 0 0
          0 0 0 0 0 0
          0 0 0 0 0 0
          0 0 0 0 0 0
          0 0 0 0 0 0
          0 0 0 0 0 0
          0 0 0 0 0 0
          0 0 0 0 0 0
          0 0 0 0 0 0
          0 0 0 0 0 0
          0 0 0 0 0 0
          0 0 0 0 0 0
          0 0 0 0 0 0
          0 0 0 0 0 0
          0 0 0 0 0 0
          0 0 0 0 0 0
          <InformationKey name="L2_NORM_RANGE" location="vtkDataArray" length="2">
            <Value index="0">
              0
            </Value>
            <Value index="1">
              0
            </Value>
          </InformationKey>
        </DataArray>
        <DataArray type="Int64" Name="geometry_set_0_surface" format="ascii" RangeMin="0" RangeMax="1">
          1 0 0 1 1 0
          0 1 0 0 0 0
          0 1 0 1 0 0
          1 0 0 1 0 0
          0 1 0 0 0 0
          0 0 0 0 0 0
          0 0 0 0 0 0
          0 0 0 0 0 0
          0 0 0 0 0 0
          0 0 0 0 0 0
          0 0 0 0 0 0
          0 0 0 0 0 0
          0 0 0 0 0 0
          0 0 0 0 0 0
          0 0 0 0 0 0
          0 0 0 0 0 0
          0 0 0 0 0 0
          0 0 0 0 0 0
          0 0 0 0 0 0
          0 0 0 0 0 0
          0 0 0 0 0 0
          0 0 0 0 0 0
          0 0 0 0 0 0
          0 0 0 0 0 0
          0 0 0 0 0 0
          0 0 0 0 0 0
          0 0 0 0 0 0
          0 0 0 0 0 0
          0 0 0 0 0 0
          0 0 0 0 0 0
          0 0 0 0 0 0
          0 0 0 0 0 0
          0 0 0 0 0 0
          0 0 0 0 0 0
          0 0 0 0 0 0
          0 0 0 0 0 0
          0 0 0 0 0 0
          0 0 0 0 0 0
          0 0 0 0 0 0
          0 0 0 0 0 0
          0 0 0 0 0 0
          0 0 0 0 0 0
          0 0 0 0 0 0
          0 0 0 0
        </DataArray>
        <DataArray type="Int64" Name="geometry_set_1_surface" format="ascii" RangeMin="0" RangeMax="1">
          0 0 0 0 0 0
          0 0 1 1 1 1
          0 0 0 0 1 1
          0 0 0 0 1 1
          0 0 1 0 0 0
          0 0 0 0 0 0
          0 0 0 0 0 0
          0 0 0 0 0 0
          0 0 0 0 0 0
          0 0 0 0 0 0
          0 0 0 0 0 0
          0 0 0 0 0 0
          0 0 0 0 0 0
          0 0 0 0 0 0
          0 0 0 0 0 0
          0 0 0 0 0 0
          0 0 0 0 0 0
          0 0 0 0 0 0
          0 0 0 0 0 0
          0 0 0 0 0 0
          0 0 0 0 0 0
          0 0 0 0 0 0
          0 0 0 0 0 0
          0 0 0 0 0 0
          0 0 0 0 0 0
          0 0 0 0 0 0
          0 0 0 0 0 0
          0 0 0 0 0 0
          0 0 0 0 0 0
          0 0 0 0 0 0
          0 0 0 0 0 0
          0 0 0 0 0 0
          0 0 0 0 0 0
          0 0 0 0 0 0
          0 0 0 0 0 0
          0 0 0 0 0 0
          0 0 0 0 0 0
          0 0 0 0 0 0
          0 0 0 0 0 0
          0 0 0 0 0 0
          0 0 0 0 0 0
          0 0 0 0 0 0
          0 0 0 0 0 0
          0 0 0 0
        </DataArray>
        <DataArray type="Int64" Name="geometry_set_2_surface" format="ascii" RangeMin="0" RangeMax="1">
          0 0 0 0 0 0
          0 0 0 0 0 0
          0 0 0 0 0 0
          0 0 0 0 0 0
          0 0 0 1 0 0
          1 1 0 0 1 0
          0 0 1 1 0 0
          1 0 0 0 1 0
          0 0 0 0 0 0
          0 0 0 0 0 0
          1 0 1 0 0 1
          0 1 0 0 1 0
          0 0 0 0 0 0
          1 0 0 1 1 0
          0 1 0 0 0 1
          0 0 0 0 0 0
          0 0 1 0 1 0
          0 1 0 0 0 0
          0 0 0 0 0 0
          0 0 0 0 0 0
          0 0 0 0 0 0
          0 0 0 0 0 0
          0 0 0 0 0 0
          0 0 0 0 0 0
          0 0 0 0 0 0
          0 0 0 0 0 0
          0 0 0 0 0 0
          0 0 0 0 0 0
          0 0 0 0 0 0
          0 0 0 0 0 0
          0 0 0 0 0 0
          0 0 0 0 0 0
          0 0 0 0 0 0
          0 0 0 0 0 0
          0 0 0 0 0 0
          0 0 0 0 0 0
          0 0 0 0 0 0
          0 0 0 0 0 0
          0 0 0 0 0 0
          0 0 0 0 0 0
          0 0 0 0 0 0
          0 0 0 0 0 0
          0 0 0 0 0 0
          0 0 0 0
        </DataArray>
        <DataArray type="Int64" Name="geometry_set_3_surface" format="ascii" RangeMin="0" RangeMax="1">
          0 0 0 0 0 0
          0 0 0 0 0 0
          0 0 0 0 0 0
          0 0 0 0 0 0
          0 0 0 0 0 0
          0 0 0 0 0 0
          0 0 0 0 0 0
          0 0 0 0 0 1
          1 1 1 0 1 0
          1 1 0 1 0 0
          0 0 0 0 0 0
          0 0 0 0 0 1
          1 1 0 1 1 0
          0 0 0 0 0 0
          0 0 0 0 0 0
          1 1 1 1 0 1
          0 0 0 0 0 0
          0 0 1 1 1 0
          0 0 0 0 0 0
          0 0 0 0 0 0
          0 0 0 0 0 0
          0 0 0 0 0 0
          0 0 0 0 0 0
          0 0 0 0 0 0
          0 0 0 0 0 0
          0 0 0 0 0 0
          0 0 0 0 0 0
          0 0 0 0 0 0
          0 0 0 0 0 0
          0 0 0 0 0 0
          0 0 0 0 0 0
          0 0 0 0 0 0
          0 0 0 0 0 0
          0 0 0 0 0 0
          0 0 0 0 0 0
          0 0 0 0 0 0
          0 0 0 0 0 0
          0 0 0 0 0 0
          0 0 0 0 0 0
          0 0 0 0 0 0
          0 0 0 0 0 0
          0 0 0 0 0 0
          0 0 0 0 0 0
          0 0 0 0
        </DataArray>
        <DataArray type="Int64" Name="geometry_set_4_surface" format="ascii" RangeMin="0" RangeMax="1">
          0 0 0 0 0 0
          0 0 0 0 0 0
          0 0 0 0 0 0
          0 0 0 0 0 0
          0 0 0 0 0 0
          0 0 0 0 0 0
          0 0 0 0 0 0
          0 0 0 0 0 0
          0 0 0 0 0 0
          0 0 0 0 0 0
          0 0 0 0 0 0
          0 0 0 0 0 0
          0 0 0 0 0 0
          0 0 0 0 0 0
          0 0 0 0 0 0
          0 0 0 0 0 0
          0 0 0 0 0 0
          0 0 0 0 0 0
          1 0 0 1 1 0
          0 1 0 0 0 1
          1 0 0 1 0 0
          0 1 0 0 0 1
          0 0 0 0 0 0
          0 0 0 0 0 0
          0 0 0 0 0 0
          0 0 0 0 1 0
          1 0 0 1 0 1
          0 0 1 0 0 0
          1 0 0 0 0 0
          0 0 0 0 0 0
          0 0 0 1 0 0
          1 1 0 0 1 0
          0 0 1 0 0 1
          0 0 0 0 0 0
          0 0 0 0 0 0
          0 0 0 0 1 0
          1 0 0 1 0 0
          1 0 0 0 0 0
          0 0 0 0 0 0
          0 0 0 0 0 0
          0 0 0 0 0 0
          0 0 0 0 0 0
          0 0 0 0 0 0
          0 0 0 0
        </DataArray>
        <DataArray type="Int64" Name="geometry_set_5_surface" format="ascii" RangeMin="0" RangeMax="1">
          0 0 0 0 0 0
          0 0 0 0 0 0
          0 0 0 0 0 0
          0 0 0 0 0 0
          0 0 0 0 0 0
          0 0 0 0 0 0
          0 0 0 0 0 0
          0 0 0 0 0 0
          0 0 0 0 0 0
          0 0 0 0 0 0
          0 0 0 0 0 0
          0 0 0 0 0 0
          0 0 0 0 0 0
          0 0 0 0 0 0
          0 0 0 0 0 0
          0 0 0 0 0 0
          0 0 0 0 0 0
          0 0 0 0 0 0
          0 0 0 0 0 0
          0 0 0 0 0 0
          0 0 0 0 0 0
          0 0 0 0 0 0
          0 0 0 1 1 1
          1 0 1 0 1 1
          0 1 0 0 0 0
          1 0 0 0 0 0
          0 0 0 0 0 0
          0 0 0 0 0 0
          0 0 0 1 1 1
          0 1 1 0 0 0
          0 1 0 0 0 0
          0 0 0 0 0 0
          0 0 0 0 0 0
          0 0 0 1 1 1
          1 0 1 0 0 0
          1 0 0 0 0 0
          0 0 0 0 0 0
          0 0 0 1 1 1
          0 0 0 1 0 0
          0 0 0 0 0 0
          0 0 0 0 0 0
          0 0 0 0 0 0
          0 0 0 0 0 0
          0 0 0 0
        </DataArray>
        <DataArray type="Int64" Name="geometry_set_6_surface" format="ascii" RangeMin="0" RangeMax="1">
          0 0 0 0 0 0
          0 0 0 0 0 0
          0 0 0 0 0 0
          0 0 0 0 0 0
          0 0 0 0 0 0
          0 0 0 0 0 0
          0 0 0 0 0 0
          0 0 0 0 0 0
          0 0 0 0 0 0
          0 0 0 0 0 0
          0 0 0 0 0 0
          0 0 0 0 0 0
          0 0 0 0 0 0
          0 0 0 0 0 0
          0 0 0 0 0 0
          0 0 0 0 0 0
          0 0 0 0 0 0
          0 0 0 0 0 0
          0 0 0 0 0 0
          0 0 0 0 0 0
          0 0 0 0 0 0
          0 0 0 0 0 0
          0 0 0 0 0 0
          0 0 0 0 0 0
          0 0 0 0 0 0
          0 0 0 0 0 0
          0 0 0 0 0 0
          0 0 0 0 0 0
          0 0 0 0 0 0
          0 0 0 0 0 0
          0 0 0 0 0 0
          0 0 0 0 0 0
          0 0 0 0 0 0
          0 0 0 0 0 0
          0 0 0 0 0 0
          0 0 0 0 0 0
          0 0 0 0 0 0
          0 0 0 0 0 0
          0 0 0 0 0 0
          0 0 0 0 0 0
          0 0 0 1 1 1
          1 1 0 0 0 0
          0 0 0 0 0 0
          0 0 0 0
        </DataArray>
        <DataArray type="Int64" Name="geometry_set_7_surface" format="ascii" RangeMin="0" RangeMax="1">
          0 0 0 0 0 0
          0 0 0 0 0 0
          0 0 0 0 0 0
          0 0 0 0 0 0
          0 0 0 0 0 0
          0 0 0 0 0 0
          0 0 0 0 0 0
          0 0 0 0 0 0
          0 0 0 0 0 0
          0 0 0 0 0 0
          0 0 0 0 0 0
          0 0 0 0 0 0
          0 0 0 0 0 0
          0 0 0 0 0 0
          0 0 0 0 0 0
          0 0 0 0 0 0
          0 0 0 0 0 0
          0 0 0 0 0 0
          0 0 0 0 0 0
          0 0 0 0 0 0
          0 0 0 0 0 0
          0 0 0 0 0 0
          0 0 0 0 0 0
          0 0 0 0 0 0
          0 0 0 0 0 0
          0 0 0 0 0 0
          0 0 0 0 0 0
          0 0 0 0 0 0
          0 0 0 0 0 0
          0 0 0 0 0 0
          0 0 0 0 0 0
          0 0 0 0 0 0
          0 0 0 0 0 0
          0 0 0 0 0 0
          0 0 0 0 0 0
          0 0 0 0 0 0
          0 0 0 0 0 0
          0 0 0 0 0 0
          0 0 0 0 0 1
          1 1 0 0 0 1
          0 1 0 0 0 0
          0 0 0 0 0 0
          0 0 0 0 0 0
          0 0 0 0
        </DataArray>
        <DataArray type="Int64" Name="geometry_set_8_surface" format="ascii" RangeMin="0" RangeMax="1">
          0 0 0 0 0 0
          0 0 0 0 0 0
          0 0 0 0 0 0
          0 0 0 0 0 0
          0 0 0 0 0 0
          0 0 0 0 0 0
          0 0 0 0 0 0
          0 0 0 0 0 0
          0 0 0 0 0 0
          0 0 0 0 0 0
          0 0 0 0 0 0
          0 0 0 0 0 0
          0 0 0 0 0 0
          0 0 0 0 0 0
          0 0 0 0 0 0
          0 0 0 0 0 0
          0 0 0 0 0 0
          0 0 0 0 0 0
          0 0 0 0 0 0
          0 0 0 0 0 0
          0 0 0 0 0 0
          0 0 0 0 0 0
          0 0 0 0 0 0
          0 0 0 0 0 0
          0 0 0 0 0 0
          0 0 0 0 0 0
          0 0 0 0 0 0
          0 0 0 0 0 0
          0 0 0 0 0 0
          0 0 0 0 0 0
          0 0 0 0 0 0
          0 0 0 0 0 0
          0 0 0 0 0 0
          0 0 0 0 0 0
          0 0 0 0 0 0
          0 0 0 0 0 0
          0 0 0 0 0 0
          0 0 0 0 0 0
          0 0 0 0 0 0
          0 0 0 0 0 0
          0 0 0 0 0 0
          0 0 0 1 1 1
          0 0 0 0 0 0
          0 0 0 0
        </DataArray>
        <DataArray type="Int64" Name="geometry_set_9_surface" format="ascii" RangeMin="0" RangeMax="1">
          0 0 0 0 0 0
          0 0 0 0 0 0
          0 0 0 0 0 0
          0 0 0 0 0 0
          0 0 0 0 0 0
          0 0 0 0 0 0
          0 0 0 0 0 0
          0 0 0 0 0 0
          0 0 0 0 0 0
          0 0 0 0 0 0
          0 0 0 0 0 0
          0 0 0 0 0 0
          0 0 0 0 0 0
          0 0 0 0 0 0
          0 0 0 0 0 0
          0 0 0 0 0 0
          0 0 0 0 0 0
          0 0 0 0 0 0
          0 0 0 0 0 0
          0 0 0 0 0 0
          0 0 0 0 0 0
          0 0 0 0 0 0
          0 0 0 0 0 0
          0 0 0 0 0 0
          0 0 0 0 0 0
          0 0 0 0 0 0
          0 0 0 0 0 0
          0 0 0 0 0 0
          0 0 0 0 0 0
          0 0 0 0 0 0
          0 0 0 0 0 0
          0 0 0 0 0 0
          0 0 0 0 0 0
          0 0 0 0 0 0
          0 0 0 0 0 0
          0 0 0 0 0 0
          0 0 0 0 0 0
          0 0 0 0 0 0
          0 0 0 0 0 0
          0 0 0 0 0 0
          0 0 0 0 0 0
          0 0 0 0 0 0
          0 1 1 1 0 1
          0 0 1 1
        </DataArray>
        <DataArray type="Float64" Name="node_value" format="ascii" RangeMin="0" RangeMax="0">
          0 0 0 0 0 0
          0 0 0 0 0 0
          0 0 0 0 0 0
          0 0 0 0 0 0
          0 0 0 0 0 0
          0 0 0 0 0 0
          0 0 0 0 0 0
          0 0 0 0 0 0
          0 0 0 0 0 0
          0 0 0 0 0 0
          0 0 0 0 0 0
          0 0 0 0 0 0
          0 0 0 0 0 0
          0 0 0 0 0 0
          0 0 0 0 0 0
          0 0 0 0 0 0
          0 0 0 0 0 0
          0 0 0 0 0 0
          0 0 0 0 0 0
          0 0 0 0 0 0
          0 0 0 0 0 0
          0 0 0 0 0 0
          0 0 0 0 0 0
          0 0 0 0 0 0
          0 0 0 0 0 0
          0 0 0 0 0 0
          0 0 0 0 0 0
          0 0 0 0 0 0
          0 0 0 0 0 0
          0 0 0 0 0 0
          0 0 0 0 0 0
          0 0 0 0 0 0
          0 0 0 0 0 0
          0 0 0 0 0 0
          0 0 0 0 0 0
          0 0 0 0 0 0
          0 0 0 0 0 0
          0 0 0 0 0 0
          0 0 0 0 0 0
          0 0 0 0 0 0
          0 0 0 0 0 0
          0 0 0 0 0 0
          0 0 0 0 0 0
          0 0 0 0
        </DataArray>
      </PointData>
      <CellData Scalars="element_type_id">
        <DataArray type="Int64" Name="element_type_id" format="ascii" RangeMin="0" RangeMax="0">
          0 0 0 0 0 0
          0 0 1 1 1 1
          1 1 1 1 2 2
          2 2 2 2 2 2
          3 3 3 3 3 3
          3 3 4 5
        </DataArray>
        <DataArray type="Int64" Name="beamme_id" format="ascii" RangeMin="0" RangeMax="33">
          0 1 2 3 4 5
          6 7 8 9 10 11
          12 13 14 15 16 17
          18 19 20 21 22 23
          24 25 26 27 28 29
          30 31 32 33
        </DataArray>
        <DataArray type="Int64" Name="element_type" format="ascii" RangeMin="3" RangeMax="3">
          3 3 3 3 3 3
          3 3 3 3 3 3
          3 3 3 3 3 3
          3 3 3 3 3 3
          3 3 3 3 3 3
          3 3 3 3
        </DataArray>
        <DataArray type="Float64" Name="cross_section_radius" format="ascii" RangeMin="0" RangeMax="0">
          0 0 0 0 0 0
          0 0 0 0 0 0
          0 0 0 0 0 0
          0 0 0 0 0 0
          0 0 0 0 0 0
          0 0 0 0
        </DataArray>
      </CellData>
      <Points>
        <DataArray type="Float64" Name="Points" NumberOfComponents="3" format="ascii" RangeMin="0" RangeMax="10.547511554864494">
          -0.5 -0.5 0.5 -0.5 -0.5 0
          -0.5 0 0 -0.5 0 0.5
          0 -0.5 0.5 0 -0.5 0
          0 0 0 0 0 0.5
          -0.5 -0.5 -0.5 -0.5 0 -0.5
          0 -0.5 -0.5 0 0 -0.5
          -0.5 0.5 0 -0.5 0.5 0.5
          0 0.5 0 0 0.5 0.5
          -0.5 0.5 -0.5 0 0.5 -0.5
          0.5 -0.5 0.5 0.5 -0.5 0
          0.5 0 0 0.5 0 0.5
          0.5 -0.5 -0.5 0.5 0 -0.5
          0.5 0.5 0 0.5 0.5 0.5
          0.5 0.5 -0.5 1.5 -0.5 0.5
          1.5 -0.5 0 1.5 0 0
          1.5 0 0.5 2 -0.5 0.5
          2 -0.5 0 2 0 0
          2 0 0.5 1.5 -0.5 0.25
          1.5 -0.25 0 1.5 0 0.25
          1.5 -0.25 0.5 1.75 -0.5 0.5
          1.75 -0.5 0 1.75 0 0
          1.75 0 0.5 2 -0.5 0.25
          2 -0.25 0 2 0 0.25
          2 -0.25 0.5 1.5 -0.5 -0.5
          1.5 0 -0.5 2 -0.5 -0.5
          2 0 -0.5 1.5 -0.5 -0.25
          1.5 -0.25 -0.5 1.5 0 -0.25
          1.75 -0.5 -0.5 1.75 0 -0.5
          2 -0.5 -0.25 2 -0.25 -0.5
          2 0 -0.25 1.5 0.5 0
          1.5 0.5 0.5 2 0.5 0
          2 0.5 0.5 1.5 0.25 0
          1.5 0.5 0.25 1.5 0.25 0.5
          1.75 0.5 0 1.75 0.5 0.5
          2 0.25 0 2 0.5 0.25
          2 0.25 0.5 1.5 0.5 -0.5
          2 0.5 -0.5 1.5 0.25 -0.5
          1.5 0.5 -0.25 1.75 0.5 -0.5
          2 0.25 -0.5 2 0.5 -0.25
          2.5 -0.5 0.5 2.5 -0.5 0
          2.5 0 0 2.5 0 0.5
          2.25 -0.5 0.5 2.25 -0.5 0
          2.25 0 0 2.25 0 0.5
          2.5 -0.5 0.25 2.5 -0.25 0
          2.5 0 0.25 2.5 -0.25 0.5
          2.5 -0.5 -0.5 2.5 0 -0.5
          2.25 -0.5 -0.5 2.25 0 -0.5
          2.5 -0.5 -0.25 2.5 -0.25 -0.5
          2.5 0 -0.25 2.5 0.5 0
          2.5 0.5 0.5 2.25 0.5 0
          2.25 0.5 0.5 2.5 0.25 0
          2.5 0.5 0.25 2.5 0.25 0.5
          2.5 0.5 -0.5 2.25 0.5 -0.5
          2.5 0.25 -0.5 2.5 0.5 -0.25
          3.5 -0.5 0.5 3.5 -0.5 0
          3.5 0 0 3.5 0 0.5
          4 -0.5 0.5 4 -0.5 0
          4 0 0 4 0 0.5
          3.5 -0.5 0.25 3.5 -0.25 0
          3.5 0 0.25 3.5 -0.25 0.5
          3.75 -0.5 0.5 3.75 -0.5 0
          3.75 0 0 3.75 0 0.5
          4 -0.5 0.25 4 -0.25 0
          4 0 0.25 4 -0.25 0.5
          3.75 -0.25 0.25 3.5 -0.25 0.25
          4 -0.25 0.25 3.75 -0.25 0.5
          3.75 -0.25 0 3.75 -0.5 0.25
          3.75 0 0.25 3.5 -0.5 -0.5
          3.5 0 -0.5 4 -0.5 -0.5
          4 0 -0.5 3.5 -0.5 -0.25
          3.5 -0.25 -0.5 3.5 0 -0.25
          3.75 -0.5 -0.5 3.75 0 -0.5
          4 -0.5 -0.25 4 -0.25 -0.5
          4 0 -0.25 3.75 -0.25 -0.25
          3.5 -0.25 -0.25 4 -0.25 -0.25
          3.75 -0.25 -0.5 3.75 -0.5 -0.25
          3.75 0 -0.25 3.5 0.5 0
          3.5 0.5 0.5 4 0.5 0
          4 0.5 0.5 3.5 0.25 0
          3.5 0.5 0.25 3.5 0.25 0.5
          3.75 0.5 0 3.75 0.5 0.5
          4 0.25 0 4 0.5 0.25
          4 0.25 0.5 3.75 0.25 0.25
          3.5 0.25 0.25 4 0.25 0.25
          3.75 0.25 0.5 3.75 0.25 0
          3.75 0.5 0.25 3.5 0.5 -0.5
          4 0.5 -0.5 3.5 0.25 -0.5
          3.5 0.5 -0.25 3.75 0.5 -0.5
          4 0.25 -0.5 4 0.5 -0.25
          3.75 0.25 -0.25 3.5 0.25 -0.25
          4 0.25 -0.25 3.75 0.25 -0.5
          3.75 0.5 -0.25 4.5 -0.5 0.5
          4.5 -0.5 0 4.5 0 0
          4.5 0 0.5 4.25 -0.5 0.5
          4.25 -0.5 0 4.25 0 0
          4.25 0 0.5 4.5 -0.5 0.25
          4.5 -0.25 0 4.5 0 0.25
          4.5 -0.25 0.5 4.25 -0.25 0.25
          4.5 -0.25 0.25 4.25 -0.25 0.5
          4.25 -0.25 0 4.25 -0.5 0.25
          4.25 0 0.25 4.5 -0.5 -0.5
          4.5 0 -0.5 4.25 -0.5 -0.5
          4.25 0 -0.5 4.5 -0.5 -0.25
          4.5 -0.25 -0.5 4.5 0 -0.25
          4.25 -0.25 -0.25 4.5 -0.25 -0.25
          4.25 -0.25 -0.5 4.25 -0.5 -0.25
          4.25 0 -0.25 4.5 0.5 0
          4.5 0.5 0.5 4.25 0.5 0
          4.25 0.5 0.5 4.5 0.25 0
          4.5 0.5 0.25 4.5 0.25 0.5
          4.25 0.25 0.25 4.5 0.25 0.25
          4.25 0.25 0.5 4.25 0.25 0
          4.25 0.5 0.25 4.5 0.5 -0.5
          4.25 0.5 -0.5 4.5 0.25 -0.5
          4.5 0.5 -0.25 4.25 0.25 -0.25
          4.5 0.25 -0.25 4.25 0.25 -0.5
          4.25 0.5 -0.25 6 0 -0.5
          6.5 -0.5 -0.5 6.5 0.5 -0.5
          6 0 0 6.5 -0.5 0
          6.5 0.5 0 5.5 0.5 -0.5
          5.5 0.5 0 5.5 -0.5 -0.5
          5.5 -0.5 0 6 0 0.5
          6.5 -0.5 0.5 6.5 0.5 0.5
          5.5 0.5 0.5 5.5 -0.5 0.5
          8 0 0.5 7 1.224646799147353e-16 -0.5
          8.5 0.8660254037844386 -0.5 8.5 -0.8660254037844386 -0.5
          10 0 0.5 9 1.224646799147353e-16 -0.5
          10.5 0.8660254037844386 -0.5 10.5 -0.8660254037844386 -0.5
          9.5 6.123233995736765e-17 0 9.75 0.43301270189221935 -0.5
          10.25 0.4330127018922193 0 10.25 -0.4330127018922193 0
          9.75 -0.43301270189221924 -0.5 10.5 0 -0.5
          <InformationKey name="L2_NORM_RANGE" location="vtkDataArray" length="2">
            <Value index="0">
              0
            </Value>
            <Value index="1">
              10.547511555
            </Value>
          </InformationKey>
        </DataArray>
      </Points>
      <Cells>
        <DataArray type="Int64" Name="connectivity" format="ascii" RangeMin="0" RangeMax="261">
          0 1 2 3 4 5
          6 7 1 8 9 2
          5 10 11 6 3 2
          12 13 7 6 14 15
          2 9 16 12 6 11
          17 14 4 5 6 7
          18 19 20 21 5 10
          11 6 19 22 23 20
          7 6 14 15 21 20
          24 25 6 11 17 14
          20 23 26 24 27 28
          29 30 31 32 33 34
          35 36 37 38 43 44
          45 46 39 40 41 42
          28 47 48 29 32 49
          50 33 51 52 53 36
          56 57 58 44 40 54
          55 41 30 29 59 60
          34 33 61 62 37 63
          64 65 45 68 69 70
          42 41 66 67 29 48
          71 59 33 50 72 61
          53 73 74 63 58 76
          77 68 41 55 75 66
          31 32 33 34 78 79
          80 81 43 44 45 46
          86 87 88 89 82 83
          84 85 32 49 50 33
          79 90 91 80 56 57
          58 44 94 95 96 87
          83 92 93 84 34 33
          61 62 81 80 97 98
          45 68 69 70 88 101
          102 103 85 84 99 100
          33 50 72 61 80 91
          104 97 58 76 77 68
          96 106 107 101 84 93
          105 99 108 109 110 111
          112 113 114 115 116 117
          118 119 124 125 126 127
          120 121 122 123 131 132
          133 134 129 130 128 109
          135 136 110 113 137 138
          114 139 140 141 117 144
          145 146 125 121 142 143
          122 132 150 151 152 148
          149 147 111 110 153 154
          115 114 155 156 118 157
          158 159 126 162 163 164
          123 122 160 161 168 169
          134 170 166 167 165 110
          136 171 153 114 138 172
          155 141 173 174 157 146
          176 177 162 122 143 175
          160 169 181 152 182 179
          180 178 112 113 114 115
          183 184 185 186 124 125
          126 127 191 192 193 194
          187 188 189 190 197 198
          199 200 130 196 195 113
          137 138 114 184 201 202
          185 144 145 146 125 205
          206 207 192 188 203 204
          189 198 210 211 212 149
          209 208 115 114 155 156
          186 185 213 214 126 162
          163 164 193 217 218 219
          190 189 215 216 222 223
          200 224 167 221 220 114
          138 172 155 185 202 225
          213 146 176 177 162 207
          227 228 217 189 204 226
          215 223 231 212 232 180
          230 229 233 234 235 236
          237 238 233 235 239 236
          238 240 234 233 241 237
          236 242 241 233 239 242
          236 240 236 237 238 243
          244 245 236 238 240 243
          245 246 237 236 242 244
          243 247 242 236 240 247
          243 246 248 249 250 251
          252 253 254 255 256 257
          258 259 260 261
        </DataArray>
        <DataArray type="Int64" Name="offsets" format="ascii" RangeMin="8" RangeMax="502">
          8 16 24 32 40 48
          56 64 84 104 124 144
          164 184 204 224 251 278
          305 332 359 386 413 440
          446 452 458 464 470 476
          482 488 492 502
        </DataArray>
        <DataArray type="UInt8" Name="types" format="ascii" RangeMin="10" RangeMax="29">
          12 12 12 12 12 12
          12 12 25 25 25 25
          25 25 25 25 29 29
          29 29 29 29 29 29
          13 13 13 13 13 13
          13 13 10 24
        </DataArray>
      </Cells>
    </Piece>
  </UnstructuredGrid>
</VTKFile>
