<?xml version="1.0"?>
<VTKFile type="UnstructuredGrid" version="0.1" byte_order="LittleEndian" header_type="UInt32" compressor="vtkZLibDataCompressor">
  <UnstructuredGrid>
    <Piece NumberOfPoints="40" NumberOfCells="20">
      <PointData>
      </PointData>
      <CellData Scalars="element_rotation_vector_2">
        <DataArray type="Float64" Name="element_rotation_vector_2" NumberOfComponents="6" format="ascii" RangeMin="0" RangeMax="3.4389444274677015">
          0 0 0 0 0 0
          0 0 0 0 0 0
          0 0 0 0 0 0
          0 0 0 0 0 0
          0 0 0 0 0 0
          0 0 0 0 0 0
          0.6139431255689367 -0.6139431255689369 1.4821898202742554 0.4705773785728892 -0.815063928580818 1.9677383905809067
          0.4705773785728892 -0.815063928580818 1.9677383905809067 0.2711981408437142 -1.0121252405469616 2.443486482548606
          0.6139431255689367 -0.6139431255689369 1.4821898202742554 0.4705773785728892 -0.815063928580818 1.9677383905809067
          0.4705773785728892 -0.815063928580818 1.9677383905809067 0.2711981408437142 -1.0121252405469616 2.443486482548606
          0 0 0 0 0 0
          0 0 0 0 0 0
          0.6139431255689367 -0.6139431255689369 1.4821898202742554 0.4705773785728892 -0.815063928580818 1.9677383905809067
          0.4705773785728892 -0.815063928580818 1.9677383905809067 0.2711981408437142 -1.0121252405469616 2.443486482548606
          0 0 0 0 0 0
          0 0 0 0 0 0
          0.6139431255689367 -0.6139431255689369 1.4821898202742554 0.4705773785728892 -0.815063928580818 1.9677383905809067
          0.4705773785728892 -0.815063928580818 1.9677383905809067 0.2711981408437142 -1.0121252405469616 2.443486482548606
          0 0 0 0 0 0
          0 0 0 0 0 0
          <InformationKey name="L2_NORM_RANGE" location="vtkDataArray" length="2">
            <Value index="0">
              0
            </Value>
            <Value index="1">
              3.4389444275
            </Value>
          </InformationKey>
        </DataArray>
        <DataArray type="Float64" Name="element_rotation_vector_3" NumberOfComponents="9" format="ascii" RangeMin="0" RangeMax="4.204427994674924">
          0.6139431255689367 -0.6139431255689369 1.4821898202742554 0.4705773785728892 -0.815063928580818 1.9677383905809067
          0.548553207855437 -0.7148884588306414 1.7258934128929344 0.4705773785728892 -0.815063928580818 1.9677383905809067
          0.2711981408437142 -1.0121252405469616 2.443486482548606 0.3786916604529951 -0.9142425426232081 2.2071767456994116
          0.6139431255689367 -0.6139431255689369 1.4821898202742554 0.4705773785728892 -0.815063928580818 1.9677383905809067
          0.548553207855437 -0.7148884588306414 1.7258934128929344 0.4705773785728892 -0.815063928580818 1.9677383905809067
          0.2711981408437142 -1.0121252405469616 2.443486482548606 0.3786916604529951 -0.9142425426232081 2.2071767456994116
          0.6139431255689367 -0.6139431255689369 1.4821898202742554 0.4705773785728892 -0.815063928580818 1.9677383905809067
          0.548553207855437 -0.7148884588306414 1.7258934128929344 0.4705773785728892 -0.815063928580818 1.9677383905809067
          0.2711981408437142 -1.0121252405469616 2.443486482548606 0.3786916604529951 -0.9142425426232081 2.2071767456994116
          0 0 0 0 0 0
          0 0 0 0 0 0
          0 0 0 0 0 0
          0 0 0 0 0 0
          0 0 0 0 0 0
          0 0 0 0 0 0
          0 0 0 0 0 0
          0 0 0 0 0 0
          0 0 0 0 0 0
          0 0 0 0 0 0
          0 0 0 0 0 0
          0 0 0 0 0 0
          0.6139431255689367 -0.6139431255689369 1.4821898202742554 0.4705773785728892 -0.815063928580818 1.9677383905809067
          0.548553207855437 -0.7148884588306414 1.7258934128929344 0.4705773785728892 -0.815063928580818 1.9677383905809067
          0.2711981408437142 -1.0121252405469616 2.443486482548606 0.3786916604529951 -0.9142425426232081 2.2071767456994116
          0 0 0 0 0 0
          0 0 0 0 0 0
          0 0 0 0 0 0
          0.6139431255689367 -0.6139431255689369 1.4821898202742554 0.4705773785728892 -0.815063928580818 1.9677383905809067
          0.548553207855437 -0.7148884588306414 1.7258934128929344 0.4705773785728892 -0.815063928580818 1.9677383905809067
          0.2711981408437142 -1.0121252405469616 2.443486482548606 0.3786916604529951 -0.9142425426232081 2.2071767456994116
          <InformationKey name="L2_NORM_RANGE" location="vtkDataArray" length="2">
            <Value index="0">
              0
            </Value>
            <Value index="1">
              4.2044279947
            </Value>
          </InformationKey>
        </DataArray>
        <DataArray type="Int64" Name="block_id" format="ascii" RangeMin="0" RangeMax="6">
          0 0 0 0 1 1
          2 2 3 3 4 4
          5 5 0 0 2 2
          6 6
        </DataArray>
      </CellData>
      <Points>
        <DataArray type="Float64" Name="Points" NumberOfComponents="3" format="ascii" RangeMin="9.999999999999998" RangeMax="145">
          10 0 0 9.659258262890681 1.830127018922193 1.8301270189221932
          8.660254037844387 3.535533905932737 3.5355339059327373 7.071067811865475 5 5.000000000000001
          5.000000000000002 6.123724356957944 6.123724356957945 25 0 0
          24.65925826289068 1.830127018922193 1.8301270189221932 23.66025403784439 3.535533905932737 3.5355339059327373
          22.071067811865476 5 5.000000000000001 20 6.123724356957944 6.123724356957945
          40 0 0 39.65925826289068 1.830127018922193 1.8301270189221932
          38.66025403784439 3.535533905932737 3.5355339059327373 37.071067811865476 5 5.000000000000001
          35 6.123724356957944 6.123724356957945 55 0 0
          53.66025403784439 3.535533905932737 3.5355339059327373 50 6.123724356957944 6.123724356957945
          70 0 0 68.66025403784438 3.535533905932737 3.5355339059327373
          65 6.123724356957944 6.123724356957945 75 0 0
          75 5 0 75 10 0
          100 0 0 98.66025403784438 3.535533905932737 3.5355339059327373
          95 6.123724356957944 6.123724356957945 115 0 0
          114.65925826289069 1.830127018922193 1.8301270189221932 113.66025403784438 3.535533905932737 3.5355339059327373
          112.07106781186548 5 5.000000000000001 110 6.123724356957944 6.123724356957945
          130 0 0 128.6602540378444 3.535533905932737 3.5355339059327373
          125 6.123724356957944 6.123724356957945 145 0 0
          144.6592582628907 1.830127018922193 1.8301270189221932 143.6602540378444 3.535533905932737 3.5355339059327373
          142.07106781186548 5 5.000000000000001 140 6.123724356957944 6.123724356957945
          <InformationKey name="L2_NORM_RANGE" location="vtkDataArray" length="2">
            <Value index="0">
              10
            </Value>
            <Value index="1">
              145
            </Value>
          </InformationKey>
        </DataArray>
      </Points>
      <Cells>
        <DataArray type="Int64" Name="connectivity" format="ascii" RangeMin="0" RangeMax="39">
          0 1 2 2 3 4
          5 6 7 7 8 9
          10 11 12 12 13 14
          15 16 16 17 18 19
          19 20 21 22 22 23
          24 25 25 26 27 28
          29 29 30 31 32 33
          33 34 35 36 37 37
          38 39
        </DataArray>
        <DataArray type="Int64" Name="offsets" format="ascii" RangeMin="3" RangeMax="50">
          3 6 9 12 15 18
          20 22 24 26 28 30
          32 34 37 40 42 44
          47 50
        </DataArray>
        <DataArray type="UInt8" Name="types" format="ascii" RangeMin="4" RangeMax="4">
          4 4 4 4 4 4
          4 4 4 4 4 4
          4 4 4 4 4 4
          4 4
        </DataArray>
      </Cells>
    </Piece>
  </UnstructuredGrid>
</VTKFile>
