<?xml version="1.0"?>
<VTKFile type="UnstructuredGrid" version="0.1" byte_order="LittleEndian" header_type="UInt32" compressor="vtkZLibDataCompressor">
  <UnstructuredGrid>
    <Piece NumberOfPoints="110" NumberOfCells="44">
      <PointData Scalars="point_type">
        <DataArray type="Int64" Name="point_type" format="ascii" RangeMin="2" RangeMax="2">
          2 2 2 2 2 2
          2 2 2 2 2 2
          2 2 2 2 2 2
          2 2 2 2 2 2
          2 2 2 2 2 2
          2 2 2 2 2 2
          2 2 2 2 2 2
          2 2 2 2 2 2
          2 2 2 2 2 2
          2 2 2 2 2 2
          2 2 2 2 2 2
          2 2 2 2 2 2
          2 2 2 2 2 2
          2 2 2 2 2 2
          2 2 2 2 2 2
          2 2 2 2 2 2
          2 2 2 2 2 2
          2 2 2 2 2 2
          2 2
        </DataArray>
        <DataArray type="Float64" Name="rotation_vector" NumberOfComponents="3" format="ascii" RangeMin="2.6179938779914944" RangeMax="4.71238898038469">
          1.926874507676449 1.9268745076764489 -0.5163044682480217 1.4879756296144508 2.226912901986796 -0.3987018683123835
          1.0121252405469616 2.443486482548606 -0.27119814084371424 0.5120536235440052 2.57426740372892 -0.1372043549100464
          -3.0090893136591915e-16 2.6179938779914944 7.522723284147979e-17 -4.212725039122868e-16 3.6651914291880923 -2.106362519561434e-16
          -0.7120636497845505 3.5797857074691386 -0.19079687991932814 -1.3798037194129669 3.3311408528196247 -0.369717292330164
          -1.9647276251001706 2.9404226857929956 -0.5264471804927084 -2.4383470626377215 2.43834706263772 -0.6533531263005776
          2.4183991523122903 2.4183991523122903 2.4183991523122903 2.4183991523122903 2.4183991523122903 2.4183991523122903
          2.4183991523122903 2.4183991523122903 2.4183991523122903 2.4183991523122903 2.4183991523122903 2.4183991523122903
          2.4183991523122903 2.4183991523122903 2.4183991523122903 -1.9268745076764495 1.9268745076764486 0.5163044682480218
          -2.3154211076929965 1.5471149219478997 0.6204152159443139 -2.639466020921753 1.0933026232887366 0.7072427887553724
          -2.884205043685116 0.5737040532477561 0.7728204122611979 -3.034545479782388 -1.0463605494025897e-15 0.8131040107032046
          -3.0345454797823876 -1.0463605494025895e-15 -0.8131040107032045 -2.8842050436851157 -0.5737040532477581 -0.7728204122611977
          -2.6394660209217515 -1.0933026232887377 -0.707242788755372 -2.315421107692996 -1.5471149219479006 -0.6204152159443138
          -1.9268745076764473 -1.9268745076764502 -0.5163044682480211 -2.4183991523122907 2.418399152312289 -2.4183991523122903
          -2.4183991523122907 2.418399152312289 -2.4183991523122903 -2.4183991523122907 2.418399152312289 -2.4183991523122903
          -2.4183991523122907 2.418399152312289 -2.4183991523122903 -2.4183991523122907 2.418399152312289 -2.4183991523122903
          2.438347062637721 2.438347062637721 0.6533531263005774 1.9647276251001706 2.9404226857929956 0.5264471804927083
          1.3798037194129662 3.3311408528196242 0.3697172923301637 0.7120636497845502 3.579785707469139 0.19079687991932806
          -4.2127250391228677e-16 3.665191429188092 0 -3.0090893136591915e-16 2.6179938779914944 -7.522723284147979e-17
          -0.5120536235440055 2.57426740372892 0.1372043549100462 -1.0121252405469618 2.443486482548606 0.271198140843714
          -1.4879756296144508 2.226912901986796 0.39870186831238325 -1.9268745076764495 1.9268745076764486 0.5163044682480217
          -1.1098329600729789e-15 4.71238898038469 -7.398886400486526e-16 -1.1098329600729789e-15 4.71238898038469 -7.398886400486526e-16
          -1.1098329600729789e-15 4.71238898038469 -7.398886400486526e-16 -1.1098329600729789e-15 4.71238898038469 -7.398886400486526e-16
          -1.1098329600729789e-15 4.71238898038469 -7.398886400486526e-16 -2.4383470626377215 2.43834706263772 -0.6533531263005774
          -2.7838355334487273 1.8600994349311144 -0.7459264830486498 -2.9953499660797718 1.2407145800040307 -0.8026016044596653
          -3.075872648459295 0.6118291102633767 -0.8241775921756465 -3.0345454797823876 -1.0463605494025895e-15 -0.8131040107032043
          -3.0345454797823876 -1.0463605494025895e-15 0.8131040107032045 -3.0758726484592955 -0.6118291102633788 0.8241775921756468
          -2.995349966079771 -1.2407145800040322 0.8026016044596653 -2.783835533448727 -1.8600994349311153 0.7459264830486501
          -2.4383470626377193 -2.438347062637723 0.6533531263005771 -2.221441469079183 -8.719671245021579e-16 -2.221441469079183
          -2.221441469079183 -8.719671245021579e-16 -2.221441469079183 -2.221441469079183 -8.719671245021579e-16 -2.221441469079183
          -2.221441469079183 -8.719671245021579e-16 -2.221441469079183 -2.221441469079183 -8.719671245021579e-16 -2.221441469079183
          1.926874507676449 1.9268745076764489 -0.5163044682480217 1.4879756296144508 2.226912901986796 -0.3987018683123836
          1.0121252405469616 2.443486482548606 -0.2711981408437143 0.5120536235440052 2.57426740372892 -0.1372043549100465
          -3.0090893136591915e-16 2.6179938779914944 -7.522723284147979e-17 -4.2127250391228677e-16 3.665191429188092 0
          -0.7120636497845505 3.5797857074691386 -0.19079687991932792 -1.3798037194129669 3.3311408528196247 -0.36971729233016376
          -1.9647276251001706 2.9404226857929956 -0.5264471804927082 -2.4383470626377215 2.43834706263772 -0.6533531263005774
          2.4183991523122903 2.4183991523122903 2.4183991523122903 2.4183991523122903 2.4183991523122903 2.4183991523122903
          2.4183991523122903 2.4183991523122903 2.4183991523122903 2.4183991523122903 2.4183991523122903 2.4183991523122903
          2.4183991523122903 2.4183991523122903 2.4183991523122903 -1.9268745076764495 1.9268745076764486 0.5163044682480217
          -2.3154211076929965 1.5471149219478997 0.6204152159443137 -2.639466020921753 1.0933026232887366 0.7072427887553723
          -2.884205043685116 0.5737040532477561 0.7728204122611976 -3.0345454797823876 -1.0463605494025895e-15 0.8131040107032045
          -3.0345454797823876 -1.0463605494025895e-15 -0.8131040107032043 -2.8842050436851157 -0.5737040532477581 -0.7728204122611976
          -2.639466020921752 -1.093302623288738 -0.707242788755372 -2.315421107692996 -1.5471149219479006 -0.6204152159443137
          -1.9268745076764473 -1.9268745076764502 -0.5163044682480211 -2.4183991523122907 2.418399152312289 -2.4183991523122903
          -2.4183991523122907 2.418399152312289 -2.4183991523122903 -2.4183991523122907 2.418399152312289 -2.4183991523122903
          -2.4183991523122907 2.418399152312289 -2.4183991523122903 -2.4183991523122907 2.418399152312289 -2.4183991523122903
          2.438347062637721 2.438347062637721 0.6533531263005774 1.9647276251001706 2.9404226857929956 0.5264471804927083
          1.3798037194129662 3.3311408528196242 0.3697172923301637 0.7120636497845502 3.579785707469139 0.19079687991932806
          -4.2127250391228677e-16 3.665191429188092 0 -3.0090893136591915e-16 2.6179938779914944 -7.522723284147979e-17
          -0.5120536235440055 2.57426740372892 0.1372043549100462 -1.0121252405469618 2.443486482548606 0.271198140843714
          -1.4879756296144508 2.226912901986796 0.39870186831238325 -1.9268745076764495 1.9268745076764486 0.5163044682480217
          -2.4383470626377215 2.43834706263772 -0.6533531263005774 -2.7838355334487273 1.8600994349311144 -0.7459264830486498
          -2.9953499660797718 1.2407145800040307 -0.8026016044596653 -3.075872648459295 0.6118291102633767 -0.8241775921756465
          -3.0345454797823876 -1.0463605494025895e-15 -0.8131040107032043 -3.0345454797823876 -1.0463605494025895e-15 0.8131040107032045
          -3.0758726484592955 -0.6118291102633788 0.8241775921756468 -2.995349966079771 -1.2407145800040322 0.8026016044596653
          -2.783835533448727 -1.8600994349311153 0.7459264830486501 -2.4383470626377193 -2.438347062637723 0.6533531263005771
          <InformationKey name="L2_NORM_RANGE" location="vtkDataArray" length="2">
            <Value index="0">
              2.617993878
            </Value>
            <Value index="1">
              4.7123889804
            </Value>
          </InformationKey>
        </DataArray>
        <DataArray type="Int64" Name="geometry_set_0_point" format="ascii" RangeMin="0" RangeMax="1">
          0 0 0 0 1 1
          0 0 0 0 0 0
          0 0 0 0 0 0
          0 1 1 0 0 0
          0 0 0 0 0 0
          0 0 0 0 0 0
          0 0 0 0 0 0
          0 0 0 0 0 0
          0 0 0 0 0 0
          0 0 0 0 0 0
          0 0 0 0 0 0
          0 0 0 0 0 0
          0 0 0 0 0 0
          0 0 0 0 0 0
          0 0 0 0 0 0
          0 0 0 0 0 0
          0 0 0 0 0 0
          0 0 0 0 0 0
          0 0
        </DataArray>
        <DataArray type="Int64" Name="geometry_set_1_point" format="ascii" RangeMin="0" RangeMax="1">
          0 0 0 0 0 0
          0 0 0 0 0 0
          0 0 0 0 0 0
          0 0 0 0 0 0
          0 0 0 0 0 0
          0 0 0 0 0 0
          0 0 0 0 0 0
          0 0 0 0 0 0
          0 0 0 0 0 0
          0 0 0 0 0 0
          0 0 0 0 0 0
          0 0 0 0 0 0
          0 0 0 0 0 0
          0 0 0 0 0 0
          0 0 0 0 0 0
          0 0 0 0 1 1
          0 0 0 0 0 0
          0 0 1 1 0 0
          0 0
        </DataArray>
        <DataArray type="Int64" Name="geometry_set_2_point" format="ascii" RangeMin="0" RangeMax="1">
          1 0 0 0 0 0
          0 0 0 0 1 0
          0 0 0 0 0 0
          0 0 0 0 0 0
          1 0 0 0 0 0
          0 0 0 0 0 0
          0 0 0 0 0 0
          0 0 0 0 0 0
          0 0 0 0 0 0
          0 0 0 0 0 0
          0 0 0 0 0 0
          0 0 0 0 0 0
          0 0 0 0 0 0
          0 0 0 0 0 0
          0 0 0 0 0 0
          0 0 0 0 0 0
          0 0 0 0 0 0
          0 0 0 0 0 0
          0 0
        </DataArray>
        <DataArray type="Int64" Name="geometry_set_3_point" format="ascii" RangeMin="0" RangeMax="1">
          0 0 0 0 1 1
          0 0 0 0 0 0
          0 0 0 0 0 0
          0 0 0 0 0 0
          0 0 0 0 0 0
          0 0 0 0 0 0
          0 0 0 0 0 0
          0 0 0 0 0 0
          0 0 0 0 0 0
          0 0 0 0 0 0
          0 0 0 0 0 0
          0 0 0 0 0 0
          0 0 0 0 0 0
          0 0 0 0 0 0
          0 0 0 0 0 0
          0 0 0 0 0 0
          0 0 0 0 0 0
          0 0 0 0 0 0
          0 0
        </DataArray>
        <DataArray type="Int64" Name="geometry_set_4_point" format="ascii" RangeMin="0" RangeMax="1">
          0 0 0 0 0 0
          0 0 0 1 0 0
          0 0 0 1 0 0
          0 0 0 0 0 0
          0 1 0 0 0 0
          0 0 0 0 0 0
          0 0 0 0 0 0
          0 0 0 0 0 0
          0 0 0 0 0 0
          0 0 0 0 0 0
          0 0 0 0 0 0
          0 0 0 0 0 0
          0 0 0 0 0 0
          0 0 0 0 0 0
          0 0 0 0 0 0
          0 0 0 0 0 0
          0 0 0 0 0 0
          0 0 0 0 0 0
          0 0
        </DataArray>
        <DataArray type="Int64" Name="geometry_set_5_point" format="ascii" RangeMin="0" RangeMax="1">
          0 0 0 0 0 0
          0 0 0 0 0 0
          0 0 1 0 0 0
          0 0 0 0 0 0
          0 0 0 0 0 0
          1 0 0 0 0 0
          0 0 0 0 0 0
          0 0 0 0 0 0
          0 0 0 0 0 0
          1 0 0 0 0 0
          0 0 0 0 0 0
          0 0 0 0 0 0
          0 0 0 0 0 0
          0 0 0 0 0 0
          0 0 0 0 0 0
          0 0 0 0 0 0
          0 0 0 0 0 0
          0 0 0 0 0 0
          0 0
        </DataArray>
        <DataArray type="Int64" Name="geometry_set_6_point" format="ascii" RangeMin="0" RangeMax="1">
          0 0 0 0 0 0
          0 0 0 0 0 0
          0 0 0 0 0 0
          0 1 1 0 0 0
          0 0 0 0 0 0
          0 0 0 0 0 0
          0 0 0 0 0 0
          0 0 0 0 0 0
          0 0 0 0 0 0
          0 0 0 0 0 0
          0 0 0 0 0 0
          0 0 0 0 0 0
          0 0 0 0 0 0
          0 0 0 0 0 0
          0 0 0 0 0 0
          0 0 0 0 0 0
          0 0 0 0 0 0
          0 0 0 0 0 0
          0 0
        </DataArray>
        <DataArray type="Int64" Name="geometry_set_7_point" format="ascii" RangeMin="0" RangeMax="1">
          0 0 0 0 0 0
          0 0 0 0 0 0
          0 0 0 0 0 0
          0 0 0 0 0 0
          0 0 0 0 0 1
          0 0 0 0 0 0
          0 0 0 1 0 0
          0 0 0 1 0 0
          0 0 0 0 0 0
          0 0 0 0 0 0
          0 0 0 0 0 0
          0 0 0 0 0 0
          0 0 0 0 0 0
          0 0 0 0 0 0
          0 0 0 0 0 0
          0 0 0 0 0 0
          0 0 0 0 0 0
          0 0 0 0 0 0
          0 0
        </DataArray>
        <DataArray type="Int64" Name="geometry_set_8_point" format="ascii" RangeMin="0" RangeMax="1">
          0 0 0 0 0 0
          0 0 0 0 0 0
          0 0 0 0 0 0
          0 0 0 0 0 0
          0 0 0 0 0 0
          0 0 0 0 1 1
          0 0 0 0 1 0
          0 0 0 0 0 0
          0 0 0 0 0 0
          0 0 0 0 0 0
          0 0 0 0 0 0
          0 0 0 0 0 0
          0 0 0 0 0 0
          0 0 0 0 0 0
          0 0 0 0 0 0
          0 0 0 0 0 0
          0 0 0 0 0 0
          0 0 0 0 0 0
          0 0
        </DataArray>
        <DataArray type="Int64" Name="geometry_set_9_point" format="ascii" RangeMin="0" RangeMax="1">
          0 0 0 0 0 0
          0 0 0 0 0 0
          0 0 0 0 0 0
          0 0 0 0 0 0
          0 0 0 0 0 0
          0 0 0 0 0 0
          0 0 0 0 0 0
          0 0 1 0 0 0
          0 0 0 0 0 0
          0 0 0 0 0 0
          0 0 0 0 1 1
          0 0 0 0 0 0
          0 0 0 0 0 0
          0 0 0 0 0 0
          0 0 0 0 0 0
          0 0 0 0 0 0
          0 0 0 0 0 0
          0 0 0 0 0 0
          0 0
        </DataArray>
        <DataArray type="Int64" Name="geometry_set_10_point" format="ascii" RangeMin="0" RangeMax="1">
          0 0 0 0 0 0
          0 0 0 0 0 0
          0 0 0 0 0 0
          0 0 0 0 0 0
          0 0 0 0 0 0
          0 0 0 0 0 0
          0 0 0 0 0 0
          0 0 0 0 0 0
          0 1 1 0 0 0
          0 1 0 0 0 0
          0 0 0 0 0 0
          0 0 0 0 0 0
          0 0 0 0 0 0
          0 0 0 0 0 0
          0 0 0 0 0 0
          0 0 0 0 0 0
          0 0 0 0 0 0
          0 0 0 0 0 0
          0 0
        </DataArray>
        <DataArray type="Int64" Name="geometry_set_11_point" format="ascii" RangeMin="0" RangeMax="1">
          0 0 0 0 0 0
          0 0 0 0 0 0
          0 0 0 0 0 0
          0 0 0 0 0 0
          0 0 0 0 0 0
          0 0 0 0 0 0
          0 0 0 0 0 0
          0 0 0 0 0 0
          0 0 0 0 0 0
          0 0 0 0 0 1
          0 0 0 0 0 0
          0 0 0 0 0 0
          0 0 0 0 0 0
          0 1 1 0 0 0
          0 0 0 0 0 0
          0 0 0 0 0 0
          0 0 0 0 0 0
          0 0 0 0 0 0
          0 0
        </DataArray>
        <DataArray type="Int64" Name="geometry_set_12_point" format="ascii" RangeMin="0" RangeMax="1">
          0 0 0 0 0 0
          0 0 0 0 0 0
          0 0 0 0 0 0
          0 0 0 0 0 0
          0 0 0 0 0 0
          0 0 0 0 0 0
          0 0 0 0 0 0
          0 0 0 0 0 0
          0 0 0 0 0 0
          0 0 0 0 0 0
          1 0 0 0 0 0
          0 0 0 0 1 0
          0 0 0 0 0 0
          0 0 0 0 0 0
          1 0 0 0 0 0
          0 0 0 0 0 0
          0 0 0 0 0 0
          0 0 0 0 0 0
          0 0
        </DataArray>
        <DataArray type="Int64" Name="geometry_set_13_point" format="ascii" RangeMin="0" RangeMax="1">
          0 0 0 0 0 0
          0 0 0 0 0 0
          0 0 0 0 0 0
          0 0 0 0 0 0
          0 0 0 0 0 0
          0 0 0 0 0 0
          0 0 0 0 0 0
          0 0 0 0 0 0
          0 0 0 0 0 0
          0 0 0 0 0 0
          0 0 0 0 0 0
          0 0 0 1 0 0
          0 0 0 1 0 0
          0 0 0 0 0 0
          0 1 0 0 0 0
          0 0 0 0 0 0
          0 0 0 0 0 0
          0 0 0 0 0 0
          0 0
        </DataArray>
        <DataArray type="Int64" Name="geometry_set_14_point" format="ascii" RangeMin="0" RangeMax="1">
          0 0 0 0 0 0
          0 0 0 0 0 0
          0 0 0 0 0 0
          0 0 0 0 0 0
          0 0 0 0 0 0
          0 0 0 0 0 0
          0 0 0 0 0 0
          0 0 0 0 0 0
          0 0 0 0 0 0
          0 0 0 0 0 0
          0 0 0 0 0 0
          0 0 0 0 0 0
          0 0 1 0 0 0
          0 0 0 0 0 0
          0 0 0 0 0 0
          1 0 0 0 0 0
          0 0 0 0 0 0
          0 0 0 0 0 0
          0 1
        </DataArray>
        <DataArray type="Int64" Name="geometry_set_15_point" format="ascii" RangeMin="0" RangeMax="1">
          0 0 0 0 0 0
          0 0 0 0 0 0
          0 0 0 0 0 0
          0 0 0 0 0 0
          0 0 0 0 0 0
          0 0 0 0 0 0
          0 0 0 0 0 0
          0 0 0 0 0 0
          0 0 0 0 0 0
          0 0 0 0 0 0
          0 0 0 0 0 0
          0 0 0 0 0 0
          0 0 0 0 0 0
          0 0 0 0 0 0
          0 0 0 0 0 1
          0 0 0 0 0 0
          0 0 0 1 1 0
          0 0 0 0 0 0
          0 0
        </DataArray>
        <DataArray type="Int64" Name="geometry_set_16_point" format="ascii" RangeMin="0" RangeMax="1">
          0 0 0 0 0 0
          0 0 0 0 0 0
          0 0 0 0 0 0
          0 0 0 0 0 0
          0 0 0 0 0 0
          0 0 0 0 0 0
          0 0 0 0 0 0
          0 0 0 0 0 0
          0 0 0 0 0 0
          0 0 0 0 0 0
          0 0 0 0 0 0
          0 0 0 0 0 0
          0 0 0 0 0 0
          0 0 0 0 0 0
          0 0 0 0 0 0
          0 0 0 0 1 1
          0 0 0 0 0 0
          0 0 0 0 0 0
          0 0
        </DataArray>
        <DataArray type="Int64" Name="geometry_set_17_point" format="ascii" RangeMin="0" RangeMax="1">
          0 0 0 0 0 0
          0 0 0 0 0 0
          0 0 0 0 0 0
          0 0 0 0 0 0
          0 0 0 0 0 0
          0 0 0 0 0 0
          0 0 0 0 0 0
          0 0 0 0 0 0
          0 0 0 0 0 0
          0 0 0 0 0 0
          0 0 0 0 0 0
          0 0 0 0 0 0
          0 0 0 0 0 0
          0 0 0 0 0 0
          0 0 0 0 0 0
          0 0 0 0 0 0
          0 0 0 0 0 0
          0 0 1 1 0 0
          0 0
        </DataArray>
        <DataArray type="Int64" Name="geometry_set_18_line" format="ascii" RangeMin="1" RangeMax="1">
          1 1 1 1 1 1
          1 1 1 1 1 1
          1 1 1 1 1 1
          1 1 1 1 1 1
          1 1 1 1 1 1
          1 1 1 1 1 1
          1 1 1 1 1 1
          1 1 1 1 1 1
          1 1 1 1 1 1
          1 1 1 1 1 1
          1 1 1 1 1 1
          1 1 1 1 1 1
          1 1 1 1 1 1
          1 1 1 1 1 1
          1 1 1 1 1 1
          1 1 1 1 1 1
          1 1 1 1 1 1
          1 1 1 1 1 1
          1 1
        </DataArray>
        <DataArray type="Float64" Name="node_value" format="ascii" RangeMin="0.5" RangeMax="1">
          1 0.5 1 0.5 1 1
          0.5 1 0.5 1 1 0.5
          1 0.5 1 1 0.5 1
          0.5 1 1 0.5 1 0.5
          1 1 0.5 1 0.5 1
          1 0.5 1 0.5 1 1
          0.5 1 0.5 1 1 0.5
          1 0.5 1 1 0.5 1
          0.5 1 1 0.5 1 0.5
          1 1 0.5 1 0.5 1
          1 0.5 1 0.5 1 1
          0.5 1 0.5 1 1 0.5
          1 0.5 1 1 0.5 1
          0.5 1 1 0.5 1 0.5
          1 1 0.5 1 0.5 1
          1 0.5 1 0.5 1 1
          0.5 1 0.5 1 1 0.5
          1 0.5 1 1 0.5 1
          0.5 1
        </DataArray>
      </PointData>
      <CellData Scalars="element_type_id">
        <DataArray type="Int64" Name="element_type_id" format="ascii" RangeMin="0" RangeMax="0">
          0 0 0 0 0 0
          0 0 0 0 0 0
          0 0 0 0 0 0
          0 0 0 0 0 0
          0 0 0 0 0 0
          0 0 0 0 0 0
          0 0 0 0 0 0
          0 0
        </DataArray>
        <DataArray type="Int64" Name="beamme_id" format="ascii" RangeMin="0" RangeMax="43">
          0 1 2 3 4 5
          6 7 8 9 10 11
          12 13 14 15 16 17
          18 19 20 21 22 23
          24 25 26 27 28 29
          30 31 32 33 34 35
          36 37 38 39 40 41
          42 43
        </DataArray>
        <DataArray type="Int64" Name="geometry_set_18_line" format="ascii" RangeMin="1" RangeMax="1">
          1 1 1 1 1 1
          1 1 1 1 1 1
          1 1 1 1 1 1
          1 1 1 1 1 1
          1 1 1 1 1 1
          1 1 1 1 1 1
          1 1 1 1 1 1
          1 1
        </DataArray>
        <DataArray type="Int64" Name="element_type" format="ascii" RangeMin="1" RangeMax="1">
          1 1 1 1 1 1
          1 1 1 1 1 1
          1 1 1 1 1 1
          1 1 1 1 1 1
          1 1 1 1 1 1
          1 1 1 1 1 1
          1 1 1 1 1 1
          1 1
        </DataArray>
        <DataArray type="Float64" Name="cross_section_radius" format="ascii" RangeMin="1" RangeMax="1">
          1 1 1 1 1 1
          1 1 1 1 1 1
          1 1 1 1 1 1
          1 1 1 1 1 1
          1 1 1 1 1 1
          1 1 1 1 1 1
          1 1 1 1 1 1
          1 1
        </DataArray>
      </CellData>
      <Points>
        <DataArray type="Float64" Name="Points" NumberOfComponents="3" format="ascii" RangeMin="0.9999999999999998" RangeMax="9.123963137935801">
          0.9999999999999998 0 0.9068996821171088 0.9238795325112865 0.3826834323650897 0.6801747615878316
          0.7071067811865472 0.7071067811865476 0.4534498410585544 0.3826834323650895 0.9238795325112866 0.22672492052927717
          -3.8285686989269484e-16 0.9999999999999998 0 -3.8285686989269484e-16 0.9999999999999998 0
          -0.38268343236509 0.9238795325112864 0.2267249205292772 -0.7071067811865477 0.7071067811865471 0.4534498410585544
          -0.9238795325112866 0.38268343236508934 0.6801747615878316 -0.9999999999999998 -7.657137397853897e-16 0.9068996821171088
          0.9999999999999998 0 0.9068996821171088 0.9999999999999998 0 1.3603495231756633
          0.9999999999999998 0 1.8137993642342178 0.9999999999999998 0 2.267249205292772
          0.9999999999999998 0 2.7206990463513265 -0.9999999999999998 -7.657137397853897e-16 0.9068996821171088
          -0.9238795325112863 -0.38268343236509034 0.6801747615878316 -0.7071067811865469 -0.7071067811865479 0.4534498410585544
          -0.3826834323650894 -0.9238795325112866 0.22672492052927717 7.04481399828022e-16 -0.9999999999999998 0
          7.04481399828022e-16 -0.9999999999999998 0 0.3826834323650907 -0.9238795325112861 0.2267249205292772
          0.7071067811865479 -0.7071067811865469 0.4534498410585544 0.9238795325112866 -0.38268343236508945 0.6801747615878316
          0.9999999999999998 1.5314274795707794e-15 0.9068996821171088 -0.9999999999999998 -7.657137397853897e-16 0.9068996821171088
          -0.9999999999999998 -7.657137397853897e-16 1.3603495231756633 -0.9999999999999998 -7.657137397853897e-16 1.8137993642342178
          -0.9999999999999998 -7.657137397853897e-16 2.267249205292772 -0.9999999999999998 -7.657137397853897e-16 2.7206990463513265
          0.9999999999999998 0 2.7206990463513265 0.9238795325112865 0.3826834323650897 2.9474239668806037
          0.7071067811865472 0.7071067811865476 3.174148887409881 0.3826834323650895 0.9238795325112866 3.400873807939158
          -3.8285686989269484e-16 0.9999999999999998 3.6275987284684352 -3.8285686989269484e-16 0.9999999999999998 3.6275987284684352
          -0.38268343236509 0.9238795325112864 3.400873807939158 -0.7071067811865477 0.7071067811865471 3.174148887409881
          -0.9238795325112866 0.38268343236508934 2.9474239668806037 -0.9999999999999998 -7.657137397853897e-16 2.7206990463513265
          -3.8285686989269484e-16 0.9999999999999998 3.6275987284684352 -3.8285686989269484e-16 0.9999999999999998 4.08104856952699
          -3.8285686989269484e-16 0.9999999999999998 4.534498410585544 -3.8285686989269484e-16 0.9999999999999998 4.987948251644099
          -3.8285686989269484e-16 0.9999999999999998 5.441398092702653 -0.9999999999999998 -7.657137397853897e-16 2.7206990463513265
          -0.9238795325112863 -0.38268343236509034 2.9474239668806037 -0.7071067811865469 -0.7071067811865479 3.174148887409881
          -0.3826834323650894 -0.9238795325112866 3.400873807939158 7.04481399828022e-16 -0.9999999999999998 3.6275987284684352
          7.04481399828022e-16 -0.9999999999999998 3.6275987284684352 0.3826834323650907 -0.9238795325112861 3.400873807939158
          0.7071067811865479 -0.7071067811865469 3.174148887409881 0.9238795325112866 -0.38268343236508945 2.9474239668806037
          0.9999999999999998 1.5314274795707794e-15 2.7206990463513265 7.04481399828022e-16 -0.9999999999999998 3.6275987284684352
          7.04481399828022e-16 -0.9999999999999998 4.08104856952699 7.04481399828022e-16 -0.9999999999999998 4.534498410585544
          7.04481399828022e-16 -0.9999999999999998 4.987948251644099 7.04481399828022e-16 -0.9999999999999998 5.441398092702653
          0.9999999999999998 0 6.348297774819762 0.9238795325112865 0.3826834323650897 6.121572854290484
          0.7071067811865472 0.7071067811865476 5.894847933761207 0.3826834323650895 0.9238795325112866 5.668123013231931
          -3.8285686989269484e-16 0.9999999999999998 5.441398092702653 -3.8285686989269484e-16 0.9999999999999998 5.441398092702653
          -0.38268343236509 0.9238795325112864 5.668123013231931 -0.7071067811865477 0.7071067811865471 5.894847933761207
          -0.9238795325112866 0.38268343236508934 6.121572854290484 -0.9999999999999998 -7.657137397853897e-16 6.348297774819762
          0.9999999999999998 0 6.348297774819762 0.9999999999999998 0 6.801747615878316
          0.9999999999999998 0 7.255197456936871 0.9999999999999998 0 7.708647297995426
          0.9999999999999998 0 8.16209713905398 -0.9999999999999998 -7.657137397853897e-16 6.348297774819762
          -0.9238795325112863 -0.38268343236509034 6.121572854290484 -0.7071067811865469 -0.7071067811865479 5.894847933761207
          -0.3826834323650894 -0.9238795325112866 5.668123013231931 7.04481399828022e-16 -0.9999999999999998 5.441398092702653
          7.04481399828022e-16 -0.9999999999999998 5.441398092702653 0.3826834323650907 -0.9238795325112861 5.668123013231931
          0.7071067811865479 -0.7071067811865469 5.894847933761207 0.9238795325112866 -0.38268343236508945 6.121572854290484
          0.9999999999999998 1.5314274795707794e-15 6.348297774819762 -0.9999999999999998 -7.657137397853897e-16 6.348297774819762
          -0.9999999999999998 -7.657137397853897e-16 6.801747615878316 -0.9999999999999998 -7.657137397853897e-16 7.255197456936871
          -0.9999999999999998 -7.657137397853897e-16 7.708647297995426 -0.9999999999999998 -7.657137397853897e-16 8.16209713905398
          0.9999999999999998 0 8.16209713905398 0.9238795325112865 0.3826834323650897 8.388822059583257
          0.7071067811865472 0.7071067811865476 8.615546980112534 0.3826834323650895 0.9238795325112866 8.842271900641812
          -3.8285686989269484e-16 0.9999999999999998 9.068996821171089 -3.8285686989269484e-16 0.9999999999999998 9.068996821171089
          -0.38268343236509 0.9238795325112864 8.842271900641812 -0.7071067811865477 0.7071067811865471 8.615546980112534
          -0.9238795325112866 0.38268343236508934 8.388822059583257 -0.9999999999999998 -7.657137397853897e-16 8.16209713905398
          -0.9999999999999998 -7.657137397853897e-16 8.16209713905398 -0.9238795325112863 -0.38268343236509034 8.388822059583257
          -0.7071067811865469 -0.7071067811865479 8.615546980112534 -0.3826834323650894 -0.9238795325112866 8.842271900641812
          7.04481399828022e-16 -0.9999999999999998 9.068996821171089 7.04481399828022e-16 -0.9999999999999998 9.068996821171089
          0.3826834323650907 -0.9238795325112861 8.842271900641812 0.7071067811865479 -0.7071067811865469 8.615546980112534
          0.9238795325112866 -0.38268343236508945 8.388822059583257 0.9999999999999998 1.5314274795707794e-15 8.16209713905398
          <InformationKey name="L2_NORM_RANGE" location="vtkDataArray" length="2">
            <Value index="0">
              1
            </Value>
            <Value index="1">
              9.1239631379
            </Value>
          </InformationKey>
        </DataArray>
      </Points>
      <Cells>
        <DataArray type="Int64" Name="connectivity" format="ascii" RangeMin="0" RangeMax="109">
          0 1 2 2 3 4
          5 6 7 7 8 9
          10 11 12 12 13 14
          15 16 17 17 18 19
          20 21 22 22 23 24
          25 26 27 27 28 29
          30 31 32 32 33 34
          35 36 37 37 38 39
          40 41 42 42 43 44
          45 46 47 47 48 49
          50 51 52 52 53 54
          55 56 57 57 58 59
          60 61 62 62 63 64
          65 66 67 67 68 69
          70 71 72 72 73 74
          75 76 77 77 78 79
          80 81 82 82 83 84
          85 86 87 87 88 89
          90 91 92 92 93 94
          95 96 97 97 98 99
          100 101 102 102 103 104
          105 106 107 107 108 109
        </DataArray>
        <DataArray type="Int64" Name="offsets" format="ascii" RangeMin="3" RangeMax="132">
          3 6 9 12 15 18
          21 24 27 30 33 36
          39 42 45 48 51 54
          57 60 63 66 69 72
          75 78 81 84 87 90
          93 96 99 102 105 108
          111 114 117 120 123 126
          129 132
        </DataArray>
        <DataArray type="UInt8" Name="types" format="ascii" RangeMin="4" RangeMax="4">
          4 4 4 4 4 4
          4 4 4 4 4 4
          4 4 4 4 4 4
          4 4 4 4 4 4
          4 4 4 4 4 4
          4 4 4 4 4 4
          4 4 4 4 4 4
          4 4
        </DataArray>
      </Cells>
    </Piece>
  </UnstructuredGrid>
</VTKFile>
