<?xml version="1.0"?>
<VTKFile type="UnstructuredGrid" version="0.1" byte_order="LittleEndian" header_type="UInt32" compressor="vtkZLibDataCompressor">
  <UnstructuredGrid>
    <Piece NumberOfPoints="41" NumberOfCells="20">
      <PointData Scalars="point_type">
        <DataArray type="Int64" Name="point_type" format="ascii" RangeMin="2" RangeMax="2">
          2 2 2 2 2 2
          2 2 2 2 2 2
          2 2 2 2 2 2
          2 2 2 2 2 2
          2 2 2 2 2 2
          2 2 2 2 2 2
          2 2 2 2 2
        </DataArray>
        <DataArray type="Float64" Name="rotation_vector" NumberOfComponents="3" format="ascii" RangeMin="1.2701879916415675" RangeMax="5.6373579766498025">
          1.5400605863072487 1.3197523715669974 0.5103273041267739 1.626857185633587 1.5286452853084243 0.5999417731287542
          1.704565168702333 1.7415409249379108 0.6918788380462465 1.7719061936971228 1.9587441649247743 0.786348406482346
          1.827238977443507 2.1806204436518133 0.8836082222290402 1.8684304922793646 2.407601201708288 0.9839735784873581
          1.8926678399403645 2.640184993767816 1.0878284143463037 1.8961776442388754 2.878927119444536 1.1956364249704265
          1.873797844830446 3.124401935512685 1.3079481243488789 1.8183083130106195 3.377102460045403 1.4253931200937795
          1.7193587431381971 3.6371965477194266 1.5486301794098385 1.5617136901076436 3.9039502301934905 1.6781851741714766
          1.3223423310738058 4.174359269869988 1.8139958801362925 0.9656524195033251 4.439844607941259 1.954185393796859
          0.43636270092555923 4.678139666472398 2.091793349293596 -0.3472854442217662 4.833655589185624 2.206275514930639
          -1.4802196312090197 4.775865437343455 2.2439276273192377 -2.9650197907303215 4.255237218583466 2.0920080367429743
          -4.459000748168706 3.041382757529525 1.6269936099844333 -5.349164353474232 1.3818947403115402 0.9263757235731853
          -5.489628836633514 -0.10783602226221327 0.2603391874578096 -5.214924674920012 -1.151350929311159 -0.22721004814919366
          -4.806913099869021 -1.811508252429106 -0.5488369855424782 -4.386174178427708 -2.213532224019361 -0.7544024705717318
          -3.9903497165987343 -2.4501229685556716 -0.8837239112536388 -3.626886016407044 -2.5792184378200638 -0.9625928195117165
          -3.293870056382709 -2.636135260612847 -1.007093970796075 -2.987141925767074 -2.642787181374582 -1.0273752714048474
          -2.7025349744968117 -2.613190642513104 -1.030012310304631 -2.4364773363385797 -2.556606908910675 -1.0193959672472663
          -2.186064553808533 -2.479347433721845 -0.9985450609709612 -1.948978983694916 -2.385836078876336 -0.9695914303374646
          -1.7233805157976165 -2.2792523420153152 -0.9340770804071064 -1.5078068429567468 -2.161932416016507 -0.8931412354461237
          -1.3010921741813415 -2.035626317893253 -0.8476412399556607 -1.1023038518438937 -1.9016670477507074 -0.7982326543868011
          -0.9106938391567981 -1.7610845235636587 -0.7454235303826316 -0.7256618648632418 -1.6146839678573057 -0.689611947829697
          -0.5467275041604553 -1.4631008710346778 -0.63111245210729 -0.37350907226946634 -1.306840180640339 -0.570174971612051
          -0.20570773496264608 -1.146304647992993 -0.5069985363653792
          <InformationKey name="L2_NORM_RANGE" location="vtkDataArray" length="2">
            <Value index="0">
              1.2701879916
            </Value>
            <Value index="1">
              5.6373579766
            </Value>
          </InformationKey>
        </DataArray>
        <DataArray type="Float64" Name="node_value" format="ascii" RangeMin="0.5" RangeMax="1">
          1 0.5 1 0.5 1 0.5
          1 0.5 1 0.5 1 0.5
          1 0.5 1 0.5 1 0.5
          1 0.5 1 0.5 1 0.5
          1 0.5 1 0.5 1 0.5
          1 0.5 1 0.5 1 0.5
          1 0.5 1 0.5 1
        </DataArray>
      </PointData>
      <CellData Scalars="element_type_id">
        <DataArray type="Int64" Name="element_type_id" format="ascii" RangeMin="0" RangeMax="0">
          0 0 0 0 0 0
          0 0 0 0 0 0
          0 0 0 0 0 0
          0 0
        </DataArray>
        <DataArray type="Int64" Name="beamme_id" format="ascii" RangeMin="0" RangeMax="19">
          0 1 2 3 4 5
          6 7 8 9 10 11
          12 13 14 15 16 17
          18 19
        </DataArray>
        <DataArray type="Int64" Name="element_type" format="ascii" RangeMin="1" RangeMax="1">
          1 1 1 1 1 1
          1 1 1 1 1 1
          1 1 1 1 1 1
          1 1
        </DataArray>
        <DataArray type="Float64" Name="cross_section_radius" format="ascii" RangeMin="0.05" RangeMax="0.05">
          0.05 0.05 0.05 0.05 0.05 0.05
          0.05 0.05 0.05 0.05 0.05 0.05
          0.05 0.05 0.05 0.05 0.05 0.05
          0.05 0.05
        </DataArray>
      </CellData>
      <Points>
        <DataArray type="Float64" Name="Points" NumberOfComponents="3" format="ascii" RangeMin="1" RangeMax="5.636798975650655">
          1 0 0 1.0537487305804878 0.21615855384608818 -0.053400933480465984
          1.0716752500896518 0.44278026313544394 -0.08144281133287623 1.0567769946794638 0.6713300346075415 -0.07858797644867588
          1.0138653027897953 0.8931662299786798 -0.04100612898403583 0.949299539820243 1.10001820424933 0.03321401066097612
          0.8706356785857071 1.2844433428635333 0.14395908422741843 0.786208755055693 1.440238341774163 0.28909735979291235
          0.7046722729396613 1.562782003012163 0.464596531617054 0.6345200096943635 1.649290602822034 0.6647465459985906
          0.5836166490293344 1.6989717206797446 0.882475139752019 0.5587631772330077 1.7130680285770459 1.109738654597154
          0.5653210595876702 1.6947886207693685 1.3379665309962785 0.6069159649443903 1.6491316787163637 1.5585349186386726
          0.6852374106850871 1.5826082707787121 1.7632432317817373 0.7999453997230244 1.502882549543916 1.9447673149247056
          0.9486892087959539 1.4183482295341492 2.097064176807653 1.1272372898078329 1.3376647492054405 2.215705927070592
          1.329711105850294 1.269278748999973 2.298124462179708 1.5489099800880917 1.2209573086505023 2.3437533792374907
          1.7767090063073985 1.1993587371177719 2.354059275497024 2.0045080325267057 1.2096646333773051 2.3324607039642933
          2.223706906764503 1.255293550435088 2.284139263614823 2.426180722806964 1.337712085544204 2.215753263409356
          2.6047288038188428 1.4563538358071424 2.1350697830806475 2.753472612891773 1.60865069769009 2.05053546307088
          2.86818060192971 1.7901747808330586 1.9708097418360837 2.9465020476704065 1.9948830939761237 1.904286333898432
          2.988096953027127 2.215451481618517 1.858629391845428 2.9946548353817897 2.4436793580176417 1.8403499840377502
          2.969801363585463 2.6709428728627764 1.8544462919350517 2.9188980029204337 2.888671466616205 1.9041274097927625
          2.8487457396751363 3.0888214809977415 1.9906360096026334 2.767209257559105 3.264320652821883 2.1131796708406334
          2.682782334029091 3.409458928387377 2.268974669751263 2.6041184727945543 3.5202040019538194 2.4533998083654667
          2.5395527098250024 3.594424141598831 2.660251782636117 2.496641017935333 3.632005989063471 2.8820879780072564
          2.4817427625251454 3.634860823947671 3.1106377494793533 2.4996692820343096 3.6068189460952613 3.3372594587687088
          2.5534180126147974 3.5534180126147956 3.553418012614797
          <InformationKey name="L2_NORM_RANGE" location="vtkDataArray" length="2">
            <Value index="0">
              1
            </Value>
            <Value index="1">
              5.6367989757
            </Value>
          </InformationKey>
        </DataArray>
      </Points>
      <Cells>
        <DataArray type="Int64" Name="connectivity" format="ascii" RangeMin="0" RangeMax="40">
          0 1 2 2 3 4
          4 5 6 6 7 8
          8 9 10 10 11 12
          12 13 14 14 15 16
          16 17 18 18 19 20
          20 21 22 22 23 24
          24 25 26 26 27 28
          28 29 30 30 31 32
          32 33 34 34 35 36
          36 37 38 38 39 40
        </DataArray>
        <DataArray type="Int64" Name="offsets" format="ascii" RangeMin="3" RangeMax="60">
          3 6 9 12 15 18
          21 24 27 30 33 36
          39 42 45 48 51 54
          57 60
        </DataArray>
        <DataArray type="UInt8" Name="types" format="ascii" RangeMin="4" RangeMax="4">
          4 4 4 4 4 4
          4 4 4 4 4 4
          4 4 4 4 4 4
          4 4
        </DataArray>
      </Cells>
    </Piece>
  </UnstructuredGrid>
</VTKFile>
